<?xml version="1.0"?>
<VTKFile type="UnstructuredGrid"  version="0.1"  >
<UnstructuredGrid>
<Piece  NumberOfPoints="100" NumberOfCells="151">
<Points>
<DataArray  type="Float64"  NumberOfComponents="3"  format="ascii">0.6279052000000001 -9.980267 100  -1.873813 -9.822873 100  -1.873813 -9.822873 0  0.6279052000000001 -9.980267 0  3.09017 -9.510565 100  3.09017 -9.510565 0  9.685832 2.486899 100  10 -2.449294e-15 0  9.685832 2.486899 0  5.358268 -8.443279 100  10 -2.449294e-15 100  5.358268 -8.443279 0  7.289686 -6.845471 100  8.763066999999999 4.817537 100  8.763066999999999 4.817537 0  7.289686 -6.845471 0  8.763066999999999 -4.817537 100  8.763066999999999 -4.817537 0  7.289686 6.845471 100  7.289686 6.845471 0  9.685832 -2.486899 100  9.685832 -2.486899 0  5.358268 8.443279 100  5.358268 8.443279 0  3.09017 9.510565 100  3.09017 9.510565 0  0.6279052000000001 9.980267 100  0.6279052000000001 9.980267 0  -1.873813 9.822873 100  -1.873813 9.822873 0  -4.257793 9.048271 100  -4.257793 9.048271 0  -6.37424 7.705132 100  -6.37424 7.705132 0  -8.090170000000001 5.877853 100  -8.090170000000001 5.877853 0  -9.297765 3.681246 100  -9.297765 3.681246 0  -9.921146999999999 1.253332 100  -9.921146999999999 1.253332 0  -9.921146999999999 -1.253332 100  -9.921146999999999 -1.253332 0  -9.297765 -3.681246 100  -9.297765 -3.681246 0  -8.090170000000001 -5.877853 100  -8.090170000000001 -5.877853 0  -6.37424 -7.705132 100  -6.37424 -7.705132 0  -4.257793 -9.048271 100  -4.257793 -9.048271 0  -1.499051 7.858298 100  0.5023242 7.984214 100  -6.472136 4.702282 100  -5.099392 6.164106 100  -6.472136 -4.702282 100  -5.099392 -6.164106 100  -3.406234 -7.238616 100  5.831749 -5.476377 100  7.010453 -3.854029 100  -7.438212 -2.944996 100  -3.406234 7.238616 100  -1.499051 -7.858298 100  -7.936918 -1.002666 100  7.748665 1.989519 100  8 -1.959435e-15 100  0.5023242 -7.984214 100  2.472136 7.608452 100  7.010453 3.854029 100  -7.936918 1.002666 100  7.748665 -1.989519 100  4.286614 6.754623 100  5.831749 5.476377 100  2.472136 -7.608452 100  -7.438212 2.944996 100  4.286614 -6.754623 100  0.5023242 7.984214 0  -1.499051 7.858298 0  -6.472136 4.702282 0  -5.099392 6.164106 0  -6.472136 -4.702282 0  -5.099392 -6.164106 0  -3.406234 -7.238616 0  5.831749 -5.476377 0  7.010453 -3.854029 0  -7.438212 -2.944996 0  -3.406234 7.238616 0  -1.499051 -7.858298 0  -7.936918 -1.002666 0  8 -1.959435e-15 0  7.748665 1.989519 0  0.5023242 -7.984214 0  2.472136 7.608452 0  7.010453 3.854029 0  -7.936918 1.002666 0  7.748665 -1.989519 0  4.286614 6.754623 0  5.831749 5.476377 0  2.472136 -7.608452 0  -7.438212 2.944996 0  4.286614 -6.754623 0  </DataArray>
</Points>
<Cells>
<DataArray  type="UInt32"  Name="connectivity"  format="ascii">28 50 60 76  45 54 79 84  44 54 59 84  46 55 56 80  20 69 83 94  13 63 67 89  20 58 69 83  13 67 89 92  18 67 71 92  18 71 92 96  12 57 74 99  6 63 88 89  30 53 60 85  12 57 82 99  48 56 80 81  10 64 69 94  42 59 62 87  7 63 64 88  7 64 88 94  18 70 71 96  42 59 84 87  30 53 78 85  4 72 74 97  22 66 70 95  22 66 91 95  9 74 97 99  16 58 82 83  26 50 51 75  16 57 58 82  38 68 93 98  38 68 73 98  28 50 75 76  0 65 72 90  30 60 76 85  1 61 65 86  4 72 90 97  24 51 66 91  48 56 61 81  48 61 81 86  1 65 86 90  36 73 77 98  24 51 75 91  46 55 79 80  40 62 68 93  40 62 87 93  46 54 55 79  36 52 73 77  22 70 95 96  32 52 53 78  32 52 77 78  44 45 54 84  42 44 59 84  18 19 92 96  20 21 83 94  6 13 63 89  16 20 58 83  13 14 89 92  13 18 67 92  46 48 56 80  12 15 82 99  6 8 88 89  40 42 62 87  6 7 63 88  10 20 69 94  47 48 80 81  6 7 63 64  7 10 64 94  9 12 74 99  30 32 53 78  12 16 57 82  42 43 84 87  30 31 78 85  22 24 66 91  27 28 75 76  34 36 52 77  22 23 91 95  28 30 60 76  4 9 74 97  38 39 93 98  5 9 97 99  16 17 82 83  36 38 73 98  0 1 65 90  29 30 76 85  1 2 86 90  26 28 50 75  3 4 90 97  1 48 61 86  0 4 72 90  45 46 54 79  19 22 95 96  24 26 51 75  24 25 75 91  18 22 70 96  36 37 77 98  32 34 52 77  48 49 81 86  46 47 79 80  38 40 68 93  40 41 87 93  32 33 77 78  43 44 45 84  29 30 31 85  42 43 44 84  16 17 20 83  17 20 21 83  8 13 14 89  6 8 13 89  14 18 19 92  47 48 49 81  13 14 18 92  31 32 33 78  46 47 48 80  27 28 29 76  19 22 23 95  6 7 10 64  11 12 15 99  9 11 12 99  6 7 8 88  7 10 21 94  5 9 11 99  10 20 21 94  12 15 16 82  40 41 42 87  30 31 32 78  0 2 3 90  34 35 36 77  22 23 24 91  15 16 17 82  0 1 2 90  28 29 30 76  4 5 9 97  26 27 28 75  41 42 43 87  37 38 39 98  23 24 25 91  3 4 5 97  0 3 4 90  36 37 38 98  33 34 35 77  44 45 46 54  1 2 49 86  45 46 47 79  25 26 27 75  35 36 37 77  18 19 22 96  32 33 34 77  24 25 26 75  1 48 49 86  39 40 41 93  38 39 40 93  </DataArray>
<DataArray  type="UInt32"  Name="offsets"  format="ascii">4 8 12 16 20 24 28 32 36 40 44 48 52 56 60 64 68 72 76 80 84 88 92 96 100 104 108 112 116 120 124 128 132 136 140 144 148 152 156 160 164 168 172 176 180 184 188 192 196 200 204 208 212 216 220 224 228 232 236 240 244 248 252 256 260 264 268 272 276 280 284 288 292 296 300 304 308 312 316 320 324 328 332 336 340 344 348 352 356 360 364 368 372 376 380 384 388 392 396 400 404 408 412 416 420 424 428 432 436 440 444 448 452 456 460 464 468 472 476 480 484 488 492 496 500 504 508 512 516 520 524 528 532 536 540 544 548 552 556 560 564 568 572 576 580 584 588 592 596 600 604 </DataArray>
<DataArray  type="UInt8"  Name="types"  format="ascii">10 10 10 10 10 10 10 10 10 10 10 10 10 10 10 10 10 10 10 10 10 10 10 10 10 10 10 10 10 10 10 10 10 10 10 10 10 10 10 10 10 10 10 10 10 10 10 10 10 10 10 10 10 10 10 10 10 10 10 10 10 10 10 10 10 10 10 10 10 10 10 10 10 10 10 10 10 10 10 10 10 10 10 10 10 10 10 10 10 10 10 10 10 10 10 10 10 10 10 10 10 10 10 10 10 10 10 10 10 10 10 10 10 10 10 10 10 10 10 10 10 10 10 10 10 10 10 10 10 10 10 10 10 10 10 10 10 10 10 10 10 10 10 10 10 10 10 10 10 10 10 </DataArray>
</Cells>
<PointData  Scalars="f_405"> 
<DataArray  type="Float64"  Name="f_405"  format="ascii">9.9999994331476032e+01  1.0000000913309799e+02  1.0000000913309799e+02  9.9999994331476032e+01  9.9999997248124984e+01  9.9999997248124984e+01  1.0000000816842500e+02  1.0000000000000000e+02  1.0000000816842500e+02  9.9999996231665008e+01  1.0000000000000000e+02  9.9999996231665008e+01  9.9999995190436991e+01  1.0000000599285799e+02  1.0000000599285799e+02  9.9999995190436991e+01  1.0000000599285799e+02  1.0000000599285799e+02  9.9999995190436991e+01  9.9999995190436991e+01  1.0000000816842500e+02  1.0000000816842500e+02  9.9999996231665008e+01  9.9999996231665008e+01  9.9999997248124984e+01  9.9999997248124984e+01  9.9999994331476032e+01  9.9999994331476032e+01  1.0000000913309799e+02  1.0000000913309799e+02  1.0000000932029000e+02  1.0000000932029000e+02  9.9999994715024002e+01  9.9999994715024002e+01  1.0000000651850901e+02  1.0000000651850901e+02  1.0000000610774100e+02  1.0000000610774100e+02  9.9999998897832981e+01  9.9999998897832981e+01  9.9999998897832981e+01  9.9999998897832981e+01  1.0000000610774100e+02  1.0000000610774100e+02  1.0000000651850901e+02  1.0000000651850901e+02  9.9999994715024002e+01  9.9999994715024002e+01  1.0000000932029000e+02  1.0000000932029000e+02  6.4000001357404997e+01  6.4000002799701633e+01  6.4000000410019993e+01  6.4000001548900002e+01  6.4000000410019993e+01  6.4000001548900002e+01  6.3999991658212004e+01  6.4000001445130010e+01  6.3999990798050007e+01  6.3999999196960005e+01  6.3999991658212004e+01  6.4000001357404997e+01  6.4000006446280011e+01  6.3999995133585998e+01  6.4000000000000000e+01  6.4000002799701633e+01  6.3999998238799989e+01  6.3999990798050007e+01  6.4000006446280011e+01  6.3999995133585998e+01  6.3999991457124999e+01  6.4000001445130010e+01  6.3999998238799989e+01  6.3999999196960005e+01  6.3999991457124999e+01  6.4000002799701633e+01  6.4000001357404997e+01  6.4000000410019993e+01  6.4000001548900002e+01  6.4000000410019993e+01  6.4000001548900002e+01  6.3999991658212004e+01  6.4000001445130010e+01  6.3999990798050007e+01  6.3999999196960005e+01  6.3999991658212004e+01  6.4000001357404997e+01  6.4000006446280011e+01  6.4000000000000000e+01  6.3999995133585998e+01  6.4000002799701633e+01  6.3999998238799989e+01  6.3999990798050007e+01  6.4000006446280011e+01  6.3999995133585998e+01  6.3999991457124999e+01  6.4000001445130010e+01  6.3999998238799989e+01  6.3999999196960005e+01  6.3999991457124999e+01  </DataArray> 
</PointData> 
</Piece>
</UnstructuredGrid>
</VTKFile>