<?xml version="1.0"?>
<VTKFile type="UnstructuredGrid"  version="0.1"  >
<UnstructuredGrid>
<Piece  NumberOfPoints="166" NumberOfCells="699">
<Points>
<DataArray  type="Float64"  NumberOfComponents="3"  format="ascii">0.1369094 2 2.145794  -4.898587e-17 2 2.2  0.04973798 2 2.193717  0.09635073 2 2.175261  0.1688656 2 2.107165  0.1902113 2 2.061803  0.1996053 2 2.012558  0.1964575 2 1.962524  0.1809654 2 1.914844  0.1541026 2 1.872515  0.1175571 2 1.838197  0.07362491 2 1.814045  0.02506665 2 1.801577  -0.02506665 2 1.801577  -0.07362491 2 1.814045  -0.1175571 2 1.838197  -0.1541026 2 1.872515  -0.1809654 2 1.914844  -0.1964575 2 1.962524  -0.1996053 2 2.012558  -0.1902113 2 2.061803  -0.1688656 2 2.107165  -0.1369094 2 2.145794  -0.09635073 2 2.175261  -0.04973798 2 2.193717  -0.08230287 1.075503 1.817719  -0.1188242 1.066637 1.839125  -0.1500222 1.054785 1.867738  -0.1744992 1.040479 1.902276  -4.898587e-17 1 2.2  0.05176381 1 2.193185  0.1 1 2.173205  -0.1911586 1.024359 1.941192  0.1414214 1 2.141421  -0.1977773 1.012316 1.970266  -0.2 1 2  0.1732051 1 2.1  -0.1931852 1 2.051764  0.1931852 1 2.051764  -0.1732051 1 2.1  0.2 1 2  0.1931852 1.021441 1.948236  -0.1414214 1 2.141421  0.1732051 1.041421 1.9  -0.1 1 2.173205  -0.05176381 1 2.193185  0.1450749 1.057025 1.862329  0.1128493 1.068395 1.834879  0.07556816 1.076702 1.814826  0.03850439 1.081293 1.803741  0 1.082843 1.8  -0.04209435 1.080987 1.80448  -0.04020688 0.8895324999999999 2.161803  -0.07556422 0.9099461 2.161803  -0.05176381 0.8633975 2.136603  -0.04734415 0.9602735 2.190211  -0.0580762 0.978862 2.190211  -0.1018074 0.9412215 2.161803  -8.627661000000001e-11 0.8824429 2.161803  2.284771e-15 0.8585786 2.141421  -0.1931852 0.9633975 2.036603  -0.0309017 0.9464766999999999 2.190211  0.1873216 0.9669702 2.061803  0.1732051 0.9292893 2.070711  0.1931852 0.9633975 2.036603  0.1239486 0.8959948 2.117557  0.1 0.8775255 2.122474  0.1414214 0.9 2.1  0.04020688 0.8895324999999999 2.161803  0.05176381 0.8633975 2.136603  -0.01073205 0.9391355 2.190211  0.1520455 0.9446600000000001 2.117557  0.07556422 0.9099461 2.161803  0.01073205 0.9391355 2.190211  0.1018074 0.9412215 2.161803  0.0309017 0.9464766999999999 2.190211  0.1157711 0.9795864 2.161803  0.04734415 0.9602735 2.190211  0.0580762 0.978862 2.190211  -0.1873216 0.9669702 2.061803  -0.1732051 0.9292893 2.070711  -0.1520455 0.9446600000000001 2.117557  -0.1414214 0.9 2.1  -0.1239486 0.8959948 2.117557  -0.1 0.8775255 2.122474  -0.1157711 0.9795864 2.161803  0.1414214 -0.1 1.1  0.1732051 -0.07071068 1.070711  0.1931852 -0.03660254 1.036603  0.2 -4.898587e-17 1  0 0.2 0.9171573  -0.04209435 0.19552 0.919013  0.1931852 0.05176381 0.9785587  -0.08230287 0.1822807 0.9244969  0.1732051 0.1 0.9585785999999999  -0.1188242 0.1608751 0.9333633  0.1450749 0.1376709 0.9429748  -0.1500222 0.1322624 0.9452151  0.1128493 0.1651212 0.9316044999999999  -0.1744992 0.09772425 0.9595213  0.07556816 0.1851741 0.9232984  -0.1911586 0.05880807 0.9756409  0.03850439 0.1962585 0.9187071  -0.1977773 0.02973449 0.9876836  -0.2 -4.873872e-15 1  -0.1931852 -0.03660254 1.036603  -0.1732051 -0.07071068 1.070711  -0.1414214 -0.1 1.1  -0.1 -0.1224745 1.122474  -0.05176381 -0.1366025 1.136603  2.195953e-15 -0.1414214 1.141421  0.05176381 -0.1366025 1.136603  0.1 -0.1224745 1.122474  -3.67394e-17 -0.2 1  -0.05176381 -0.1931852 1  -0.03747626 -0.1964575 0  0.0125581 -0.1996053 0  0.05176381 -0.1931852 1  0.0618034 -0.1902113 0  0.2 -4.898587e-17 0  0.1937166 0.04973798 0  0.1752613 0.09635073 0  0.1 -0.1732051 1  0.1071654 -0.1688656 0  0.1457937 0.1369094 0  0.1414214 -0.1414214 1  0.1457937 -0.1369094 0  0.1732051 -0.1 1  0.1752613 -0.09635073 0  0.1071654 0.1688656 0  0.1931852 -0.05176381 1  0.1937166 -0.04973798 0  0.0618034 0.1902113 0  0.0125581 0.1996053 0  -0.03747626 0.1964575 0  -0.08515586 0.1809654 0  -0.1274848 0.1541026 0  -0.1618034 0.1175571 0  -0.1859553 0.07362491 0  -0.1984229 0.02506665 0  -0.1984229 -0.02506665 0  -0.1931852 -0.05176381 1  -0.1859553 -0.07362491 0  -0.1732051 -0.1 1  -0.1618034 -0.1175571 0  -0.1414214 -0.1414214 1  -0.1274848 -0.1541026 0  -0.1 -0.1732051 1  -0.08515586 -0.1809654 0  0.1326828 -0.1113341 1.1  0.124177 -0.1479884 1.051764  0.1673033 -0.09659258 1.051764  -0.1673033 -0.09659258 1.051764  -0.124177 -0.1479884 1.051764  -0.06607322 -0.1815347 1.051764  -0.08660254000000001 -0.15 1.1  -2.070704e-16 -0.1931852 1.051764  -0.03007675 -0.1705737 1.1  0.06607322 -0.1815347 1.051764  0.03007675 -0.1705737 1.1  0.08660254000000001 -0.15 1.1  -0.1969863507418906 0.4947681769845269 1.505229722801782  0.02094815041057944 0.378941200035604 1.51982109465378  -0.07798273031823935 0.4550153693019348 1.544984629027483  0.09279917720683784 0.5624205712112451 1.559020555456275  6.938893903907228e-18 0.9999996218824925 2.000000945603239  </DataArray>
</Points>
<Cells>
<DataArray  type="UInt32"  Name="connectivity"  format="ascii">18 19 32 34  99 101 138 139  41 88 89 92  40 41 88 89  40 41 64 88  19 34 35 37  103 104 140 141  101 103 139 140  113 154 156 157  113 156 158 159  147 153 154 155  143 152 153 155  89 92 119 131  89 92 130 131  6 38 40 41  32 34 101 105  34 101 103 105  32 34 60 105  92 94 119 120  51 59 91 165  103 104 105 161  59 91 110 165  19 20 34 37  50 90 102 165  50 51 90 165  49 50 102 165  49 100 102 165  51 90 91 165  48 49 100 165  48 98 100 165  47 48 98 165  5 6 38 41  25 51 91 109  94 96 120 121  25 91 93 109  25 26 84 93  26 84 93 95  90 102 110 165  90 91 110 165  100 102 111 165  26 27 82 95  98 100 112 165  46 47 86 96  51 59 91 109  43 87 92 94  25 51 54 109  27 82 95 97  28 32 99 106  46 86 94 96  27 28 97 106  32 99 101 106  84 93 95 108  41 43 87 92  32 101 105 106  26 82 84 95  28 32 80 106  28 97 99 106  43 46 86 94  41 87 88 92  32 60 80 105  32 80 105 106  41 43 63 87  100 111 112 165  82 95 97 107  27 82 97 106  27 28 80 106  41 63 64 87  41 64 87 88  51 54 59 109  6 7 41 43  59 91 109 110  43 46 67 86  43 86 87 94  96 98 121 124  84 95 107 108  82 84 95 107  27 80 82 106  18 19 28 32  17 18 27 28  82 97 106 107  46 67 86 112  46 66 67 112  43 63 67 86  43 63 86 87  66 111 112 165  66 69 111 165  27 28 80 82  97 99 106 107  112 158 159 160  112 149 150 160  16 17 26 27  112 150 158 160  110 156 157 159  112 149 150 151  108 154 155 157  90 124 133 134  101 140 141 142  90 124 132 133  90 124 134 135  90 124 129 132  107 152 153 155  0 12 13 50  90 124 135 136  0 13 14 50  0 11 12 50  90 124 136 137  0 14 15 50  19 20 32 34  0 10 11 50  98 100 124 129  90 124 137 138  7 8 43 46  0 9 10 50  0 15 16 50  90 113 115 116  102 113 116 117  102 116 117 118  90 120 121 124  91 113 114 115  90 124 138 139  100 117 118 122  0 16 17 50  23 24 25 45  90 119 120 124  0 8 9 50  23 25 44 45  93 114 115 148  2 3 30 48  3 30 31 48  93 114 147 148  25 54 84 163  98 118 122 123  90 124 139 140  90 124 140 142  90 124 142 144  90 124 144 146  90 124 146 148  90 119 124 131  90 115 124 148  90 115 116 124  90 116 118 124  90 118 123 124  90 123 124 126  90 124 126 128  90 124 128 131  0 17 18 50  22 23 26 44  0 7 8 50  22 26 42 44  95 146 147 148  0 3 31 47  99 101 139 140  95 145 146 147  15 16 25 26  20 32 34 37  96 122 123 125  0 1 2 50  0 1 24 50  0 6 7 50  0 18 19 50  0 5 6 50  0 19 20 50  0 4 5 50  0 20 21 50  0 21 22 50  0 22 23 50  0 2 3 50  0 23 24 50  96 123 125 126  0 31 33 46  101 103 140 141  97 99 138 139  21 22 27 42  97 144 145 146  0 4 33 46  94 125 126 127  92 128 130 131  21 28 39 42  20 21 28 39  20 32 37 39  94 126 127 128  1 24 29 165  1 2 29 165  24 29 45 165  2 29 30 165  92 127 128 130  101 141 142 143  99 143 144 145  8 9 46 47  4 33 36 43  4 5 36 43  99 142 143 144  5 36 38 41  95 97 137 138  90 102 113 116  90 91 113 115  100 102 117 118  1 24 50 51  100 102 129 132  91 93 114 115  1 2 49 50  91 93 115 148  23 24 25 51  98 100 118 122  98 100 118 123  90 102 116 118  23 25 26 44  100 102 118 123  2 3 48 49  3 31 47 48  90 102 124 129  90 91 115 148  23 24 50 51  93 95 147 148  9 10 49 50  90 102 118 123  2 3 49 50  90 91 136 137  22 23 25 51  92 94 119 131  15 16 50 51  16 17 50 51  90 91 137 138  8 9 49 50  22 23 50 51  90 102 121 124  22 23 25 26  91 93 146 148  90 102 120 121  90 102 123 126  100 102 123 126  90 91 146 148  0 3 49 50  34 35 60 161  21 22 50 51  93 95 146 148  0 3 48 49  90 102 126 128  90 102 119 120  98 100 123 126  90 91 144 146  0 4 49 50  90 102 129 132  20 21 50 51  90 102 128 131  90 91 135 136  96 98 122 123  10 11 49 50  4 5 49 50  90 91 142 144  0 3 47 48  17 18 50 51  14 15 50 51  90 102 119 131  90 91 138 139  19 20 50 51  7 8 49 50  21 22 25 51  5 6 49 50  90 91 140 142  100 102 126 128  96 98 123 126  22 26 27 42  91 93 144 146  18 19 50 51  6 7 49 50  90 91 139 140  0 4 48 49  9 10 47 48  0 31 46 47  21 22 25 26  20 21 25 51  100 102 128 131  98 100 126 128  95 97 145 146  93 95 144 146  91 93 142 144  4 5 48 49  0 4 47 48  93 95 136 137  14 15 25 51  1 24 51 165  1 2 49 165  21 22 26 27  100 102 119 131  19 20 25 51  24 25 45 165  96 98 126 128  5 6 48 49  91 93 140 142  100 102 119 120  95 97 144 146  2 30 48 165  20 21 25 26  98 100 128 131  19 20 28 32  0 4 46 47  93 95 142 144  4 5 47 48  94 96 125 126  100 102 120 121  18 19 25 51  6 7 48 49  21 27 28 42  91 93 139 140  5 6 41 43  94 96 126 128  94 96 119 120  90 91 134 135  17 18 25 51  7 8 48 49  91 93 138 139  20 21 26 27  19 20 25 26  98 100 119 131  4 33 43 46  96 98 128 131  95 97 142 144  97 99 144 145  93 95 140 142  8 9 48 49  91 93 137 138  5 6 47 48  16 17 25 51  100 102 121 124  4 5 46 47  11 12 49 50  18 19 27 28  99 101 140 142  92 94 128 131  20 21 27 28  92 94 127 128  20 28 32 39  98 100 119 120  13 14 50 51  94 96 128 131  97 99 142 144  19 20 26 27  18 19 25 26  93 95 139 140  96 98 119 131  99 101 142 143  9 10 48 49  6 7 47 48  4 5 43 46  100 102 124 129  91 93 136 137  95 97 140 142  25 44 45 165  5 36 41 43  30 31 48 165  96 98 120 121  10 11 48 49  5 6 46 47  19 20 27 28  15 16 25 51  90 102 132 133  94 96 119 131  98 100 120 121  17 18 26 27  6 7 43 46  97 99 139 140  91 93 135 136  97 99 140 142  17 18 25 26  96 98 119 120  93 95 138 139  7 8 47 48  5 6 43 46  16 17 25 26  18 19 26 27  98 100 121 124  95 97 139 140  93 95 137 138  95 97 138 139  6 7 46 47  8 9 47 48  7 8 46 47  1 50 51 165  1 49 50 165  24 25 51 165  2 48 49 165  31 47 48 165  25 26 44 165  51 54 59 165  25 51 54 165  113 114 154 157  113 117 158 159  113 114 154 156  113 117 156 158  125 127 150 151  143 145 152 153  143 145 153 155  145 147 153 155  26 42 44 165  31 33 46 165  25 54 84 165  25 26 84 165  95 97 145 147  46 47 164 165  31 46 47 165  46 66 164 165  26 27 42 165  98 100 117 122  102 110 111 162  26 27 82 165  108 114 154 157  112 117 158 159  112 122 150 158  110 113 156 157  110 113 156 159  112 127 150 151  108 147 154 155  108 143 152 155  26 82 84 165  46 66 67 165  95 97 107 108  59 69 162 165  96 98 112 164  86 96 112 164  33 43 46 165  28 39 42 165  33 36 43 165  98 100 111 112  27 28 42 165  111 112 159 160  93 95 114 147  86 112 149 151  108 109 155 157  107 108 152 155  43 46 67 165  143 145 147 155  27 28 82 165  58 68 73 165  52 58 70 165  58 70 73 165  52 61 70 165  68 73 75 165  52 53 61 165  68 72 75 165  57 81 83 165  65 71 74 165  55 56 57 165  74 77 78 165  53 55 61 165  72 75 77 165  56 57 85 165  74 76 78 165  72 74 77 165  53 55 57 165  71 74 76 165  57 81 85 165  65 72 74 165  53 57 83 165  28 80 82 165  43 63 67 165  108 113 114 157  112 113 117 159  108 114 147 154  112 117 122 158  112 122 125 150  112 125 127 150  108 141 143 152  93 95 108 109  108 143 147 155  112 127 130 151  100 102 113 117  91 93 113 114  110 112 113 159  108 110 113 157  106 108 141 152  105 106 141 152  87 112 130 151  87 88 130 151  93 108 109 163  96 98 117 122  28 32 39 165  98 100 113 117  93 95 113 114  95 97 114 147  36 41 43 165  110 111 112 159  108 109 110 157  94 96 122 125  100 102 110 111  106 107 108 152  86 87 112 151  90 91 102 113  96 98 113 117  36 38 41 165  32 37 39 165  92 113 117 122  92 122 125 127  91 100 102 113  28 32 80 165  95 97 113 114  103 143 145 147  91 93 100 113  103 113 114 147  108 113 114 147  112 113 117 122  112 122 125 127  97 99 145 147  91 93 109 110  93 98 100 113  94 96 117 122  94 96 113 117  41 43 63 165  93 95 98 113  97 99 114 147  97 99 113 114  95 96 98 113  92 94 113 117  92 94 117 122  90 91 102 110  99 101 113 114  99 101 114 147  92 94 122 125  95 96 97 113  99 101 145 147  91 100 102 110  92 103 113 122  96 98 111 112  101 103 113 114  89 92 122 127  89 92 127 130  91 93 100 110  101 103 114 147  92 94 125 127  101 103 145 147  99 101 143 145  89 103 113 122  103 104 141 143  103 104 143 147  103 104 113 147  89 112 113 122  104 108 141 143  89 112 122 127  104 108 143 147  89 112 127 130  104 108 113 147  101 103 143 145  98 100 110 111  94 96 97 113  93 98 100 110  94 97 99 113  93 95 109 110  95 97 108 109  93 95 98 110  44 56 85 165  31 76 78 165  29 77 78 165  29 55 56 165  29 55 61 165  29 75 77 165  29 70 73 165  29 61 70 165  29 73 75 165  33 71 76 165  42 81 85 165  94 99 101 113  92 94 101 113  95 96 98 110  101 103 141 143  86 94 96 112  41 63 64 165  32 60 80 165  96 98 110 111  95 96 97 110  92 101 103 113  89 92 103 122  95 97 109 110  97 99 107 108  89 103 104 113  89 108 112 113  89 104 108 113  88 89 112 130  104 105 108 141  105 106 108 141  108 110 112 113  87 88 112 130  94 96 97 110  94 96 111 112  94 97 99 110  94 96 110 111  97 99 108 109  97 99 109 110  94 99 101 110  92 94 101 110  92 94 110 111  92 94 111 112  99 101 109 110  99 101 108 109  86 92 94 112  92 101 103 110  99 101 107 108  89 92 103 112  92 103 110 112  101 103 109 110  88 89 92 112  87 88 92 112  86 87 92 112  92 110 111 112  101 103 108 109  101 103 107 108  86 87 92 94  89 103 108 112  89 103 104 108  103 108 110 112  103 104 105 108  103 105 106 108  103 106 107 108  103 108 109 110  99 101 106 107  101 103 106 107  65 66 72 165  53 83 84 165  68 69 72 165  52 53 54 165  52 58 59 165  58 59 68 165  81 82 83 165  65 67 71 165  101 103 105 106  32 34 37 165  32 34 60 165  33 36 71 165  39 42 81 165  29 30 78 165  29 45 56 165  37 39 79 165  36 38 62 165  44 45 56 165  30 31 78 165  31 33 76 165  42 44 85 165  39 79 80 165  36 62 63 165  39 80 81 165  36 63 71 165  38 62 64 165  37 60 79 165  38 40 41 165  82 83 84 165  65 66 67 165  66 69 72 165  53 54 84 165  60 79 80 165  62 63 64 165  80 81 82 165  63 67 71 165  59 68 69 165  52 54 59 165  40 41 64 165  34 35 37 165  34 35 60 165  35 37 60 165  38 40 64 165  54 84 108 163  94 96 121 124  25 93 109 163  59 69 110 162  69 110 111 162  18 19 34 35  25 84 93 163  34 35 103 161  46 66 112 164  25 54 109 163  7 8 41 43  6 7 40 41  9 10 46 47  17 18 28 32  16 17 27 28  54 108 109 163  15 16 26 27  8 9 43 46  35 60 104 161  103 104 139 140  93 95 135 136  34 60 105 161  97 99 137 138  95 97 136 137  35 103 104 161  10 11 47 48  46 47 86 164  60 104 105 161  34 103 105 161  46 86 112 164  84 93 108 163  47 96 98 164  92 94 120 121  47 86 96 164  66 112 164 165  98 112 164 165  47 98 164 165  102 110 162 165  59 110 162 165  69 111 162 165  102 111 162 165  </DataArray>
<DataArray  type="UInt32"  Name="offsets"  format="ascii">4 8 12 16 20 24 28 32 36 40 44 48 52 56 60 64 68 72 76 80 84 88 92 96 100 104 108 112 116 120 124 128 132 136 140 144 148 152 156 160 164 168 172 176 180 184 188 192 196 200 204 208 212 216 220 224 228 232 236 240 244 248 252 256 260 264 268 272 276 280 284 288 292 296 300 304 308 312 316 320 324 328 332 336 340 344 348 352 356 360 364 368 372 376 380 384 388 392 396 400 404 408 412 416 420 424 428 432 436 440 444 448 452 456 460 464 468 472 476 480 484 488 492 496 500 504 508 512 516 520 524 528 532 536 540 544 548 552 556 560 564 568 572 576 580 584 588 592 596 600 604 608 612 616 620 624 628 632 636 640 644 648 652 656 660 664 668 672 676 680 684 688 692 696 700 704 708 712 716 720 724 728 732 736 740 744 748 752 756 760 764 768 772 776 780 784 788 792 796 800 804 808 812 816 820 824 828 832 836 840 844 848 852 856 860 864 868 872 876 880 884 888 892 896 900 904 908 912 916 920 924 928 932 936 940 944 948 952 956 960 964 968 972 976 980 984 988 992 996 1000 1004 1008 1012 1016 1020 1024 1028 1032 1036 1040 1044 1048 1052 1056 1060 1064 1068 1072 1076 1080 1084 1088 1092 1096 1100 1104 1108 1112 1116 1120 1124 1128 1132 1136 1140 1144 1148 1152 1156 1160 1164 1168 1172 1176 1180 1184 1188 1192 1196 1200 1204 1208 1212 1216 1220 1224 1228 1232 1236 1240 1244 1248 1252 1256 1260 1264 1268 1272 1276 1280 1284 1288 1292 1296 1300 1304 1308 1312 1316 1320 1324 1328 1332 1336 1340 1344 1348 1352 1356 1360 1364 1368 1372 1376 1380 1384 1388 1392 1396 1400 1404 1408 1412 1416 1420 1424 1428 1432 1436 1440 1444 1448 1452 1456 1460 1464 1468 1472 1476 1480 1484 1488 1492 1496 1500 1504 1508 1512 1516 1520 1524 1528 1532 1536 1540 1544 1548 1552 1556 1560 1564 1568 1572 1576 1580 1584 1588 1592 1596 1600 1604 1608 1612 1616 1620 1624 1628 1632 1636 1640 1644 1648 1652 1656 1660 1664 1668 1672 1676 1680 1684 1688 1692 1696 1700 1704 1708 1712 1716 1720 1724 1728 1732 1736 1740 1744 1748 1752 1756 1760 1764 1768 1772 1776 1780 1784 1788 1792 1796 1800 1804 1808 1812 1816 1820 1824 1828 1832 1836 1840 1844 1848 1852 1856 1860 1864 1868 1872 1876 1880 1884 1888 1892 1896 1900 1904 1908 1912 1916 1920 1924 1928 1932 1936 1940 1944 1948 1952 1956 1960 1964 1968 1972 1976 1980 1984 1988 1992 1996 2000 2004 2008 2012 2016 2020 2024 2028 2032 2036 2040 2044 2048 2052 2056 2060 2064 2068 2072 2076 2080 2084 2088 2092 2096 2100 2104 2108 2112 2116 2120 2124 2128 2132 2136 2140 2144 2148 2152 2156 2160 2164 2168 2172 2176 2180 2184 2188 2192 2196 2200 2204 2208 2212 2216 2220 2224 2228 2232 2236 2240 2244 2248 2252 2256 2260 2264 2268 2272 2276 2280 2284 2288 2292 2296 2300 2304 2308 2312 2316 2320 2324 2328 2332 2336 2340 2344 2348 2352 2356 2360 2364 2368 2372 2376 2380 2384 2388 2392 2396 2400 2404 2408 2412 2416 2420 2424 2428 2432 2436 2440 2444 2448 2452 2456 2460 2464 2468 2472 2476 2480 2484 2488 2492 2496 2500 2504 2508 2512 2516 2520 2524 2528 2532 2536 2540 2544 2548 2552 2556 2560 2564 2568 2572 2576 2580 2584 2588 2592 2596 2600 2604 2608 2612 2616 2620 2624 2628 2632 2636 2640 2644 2648 2652 2656 2660 2664 2668 2672 2676 2680 2684 2688 2692 2696 2700 2704 2708 2712 2716 2720 2724 2728 2732 2736 2740 2744 2748 2752 2756 2760 2764 2768 2772 2776 2780 2784 2788 2792 2796 </DataArray>
<DataArray  type="UInt8"  Name="types"  format="ascii">10 10 10 10 10 10 10 10 10 10 10 10 10 10 10 10 10 10 10 10 10 10 10 10 10 10 10 10 10 10 10 10 10 10 10 10 10 10 10 10 10 10 10 10 10 10 10 10 10 10 10 10 10 10 10 10 10 10 10 10 10 10 10 10 10 10 10 10 10 10 10 10 10 10 10 10 10 10 10 10 10 10 10 10 10 10 10 10 10 10 10 10 10 10 10 10 10 10 10 10 10 10 10 10 10 10 10 10 10 10 10 10 10 10 10 10 10 10 10 10 10 10 10 10 10 10 10 10 10 10 10 10 10 10 10 10 10 10 10 10 10 10 10 10 10 10 10 10 10 10 10 10 10 10 10 10 10 10 10 10 10 10 10 10 10 10 10 10 10 10 10 10 10 10 10 10 10 10 10 10 10 10 10 10 10 10 10 10 10 10 10 10 10 10 10 10 10 10 10 10 10 10 10 10 10 10 10 10 10 10 10 10 10 10 10 10 10 10 10 10 10 10 10 10 10 10 10 10 10 10 10 10 10 10 10 10 10 10 10 10 10 10 10 10 10 10 10 10 10 10 10 10 10 10 10 10 10 10 10 10 10 10 10 10 10 10 10 10 10 10 10 10 10 10 10 10 10 10 10 10 10 10 10 10 10 10 10 10 10 10 10 10 10 10 10 10 10 10 10 10 10 10 10 10 10 10 10 10 10 10 10 10 10 10 10 10 10 10 10 10 10 10 10 10 10 10 10 10 10 10 10 10 10 10 10 10 10 10 10 10 10 10 10 10 10 10 10 10 10 10 10 10 10 10 10 10 10 10 10 10 10 10 10 10 10 10 10 10 10 10 10 10 10 10 10 10 10 10 10 10 10 10 10 10 10 10 10 10 10 10 10 10 10 10 10 10 10 10 10 10 10 10 10 10 10 10 10 10 10 10 10 10 10 10 10 10 10 10 10 10 10 10 10 10 10 10 10 10 10 10 10 10 10 10 10 10 10 10 10 10 10 10 10 10 10 10 10 10 10 10 10 10 10 10 10 10 10 10 10 10 10 10 10 10 10 10 10 10 10 10 10 10 10 10 10 10 10 10 10 10 10 10 10 10 10 10 10 10 10 10 10 10 10 10 10 10 10 10 10 10 10 10 10 10 10 10 10 10 10 10 10 10 10 10 10 10 10 10 10 10 10 10 10 10 10 10 10 10 10 10 10 10 10 10 10 10 10 10 10 10 10 10 10 10 10 10 10 10 10 10 10 10 10 10 10 10 10 10 10 10 10 10 10 10 10 10 10 10 10 10 10 10 10 10 10 10 10 10 10 10 10 10 10 10 10 10 10 10 10 10 10 10 10 10 10 10 10 10 10 10 10 10 10 10 10 10 10 10 10 10 10 10 10 10 10 10 10 10 10 10 10 10 10 10 10 10 10 10 10 10 10 10 10 10 10 10 10 10 10 10 10 10 10 10 10 10 10 10 10 10 10 10 10 10 10 10 10 10 10 10 10 10 10 10 10 10 10 10 10 10 10 10 10 10 10 10 10 10 10 10 10 10 10 10 10 10 10 10 10 10 10 10 10 10 10 10 10 10 10 </DataArray>
</Cells>
<PointData  Scalars="f_41"> 
<DataArray  type="Float64"  Name="f_41"  format="ascii">-1.7271318414011299e+12  -1.7271318414011343e+12  -1.7271318414011331e+12  -1.7271318414011316e+12  -1.7271318414011289e+12  -1.7271318414011287e+12  -1.7271318414011301e+12  -1.7271318414011311e+12  -1.7271318414011323e+12  -1.7271318414011326e+12  -1.7271318414011328e+12  -1.7271318414011340e+12  -1.7271318414011335e+12  -1.7271318414011335e+12  -1.7271318414011323e+12  -1.7271318414011321e+12  -1.7271318414011328e+12  -1.7271318414011343e+12  -1.7271318414011370e+12  -1.7271318414011375e+12  -1.7271318414011370e+12  -1.7271318414011357e+12  -1.7271318414011348e+12  -1.7271318414011353e+12  -1.7271318414011348e+12  -1.7271318414011128e+12  -1.7271318414011113e+12  -1.7271318414011116e+12  -1.7271318414011125e+12  -1.7271318414011174e+12  -1.7271318414011179e+12  -1.7271318414011169e+12  -1.7271318414011145e+12  -1.7271318414011165e+12  -1.7271318414011147e+12  -1.7271318414011145e+12  -1.7271318414011162e+12  -1.7271318414011150e+12  -1.7271318414011157e+12  -1.7271318414011152e+12  -1.7271318414011162e+12  -1.7271318414011174e+12  -1.7271318414011167e+12  -1.7271318414011174e+12  -1.7271318414011172e+12  -1.7271318414011182e+12  -1.7271318414011174e+12  -1.7271318414011182e+12  -1.7271318414011187e+12  -1.7271318414011172e+12  -1.7271318414011157e+12  -1.7271318414011140e+12  -1.7271318414011230e+12  -1.7271318414011221e+12  -1.7271318414011257e+12  -1.7271318414011199e+12  -1.7271318414011184e+12  -1.7271318414011199e+12  -1.7271318414011233e+12  -1.7271318414011267e+12  -1.7271318414011174e+12  -1.7271318414011206e+12  -1.7271318414011167e+12  -1.7271318414011174e+12  -1.7271318414011172e+12  -1.7271318414011182e+12  -1.7271318414011204e+12  -1.7271318414011184e+12  -1.7271318414011218e+12  -1.7271318414011238e+12  -1.7271318414011208e+12  -1.7271318414011174e+12  -1.7271318414011194e+12  -1.7271318414011199e+12  -1.7271318414011179e+12  -1.7271318414011194e+12  -1.7271318414011177e+12  -1.7271318414011189e+12  -1.7271318414011184e+12  -1.7271318414011169e+12  -1.7271318414011189e+12  -1.7271318414011189e+12  -1.7271318414011206e+12  -1.7271318414011213e+12  -1.7271318414011235e+12  -1.7271318414011177e+12  -1.7271318414012449e+12  -1.7271318414012417e+12  -1.7271318414012393e+12  -1.7271318414012371e+12  -1.7271318414012231e+12  -1.7271318414012231e+12  -1.7271318414012344e+12  -1.7271318414012234e+12  -1.7271318414012329e+12  -1.7271318414012256e+12  -1.7271318414012300e+12  -1.7271318414012258e+12  -1.7271318414012273e+12  -1.7271318414012283e+12  -1.7271318414012253e+12  -1.7271318414012300e+12  -1.7271318414012244e+12  -1.7271318414012314e+12  -1.7271318414012332e+12  -1.7271318414012368e+12  -1.7271318414012410e+12  -1.7271318414012429e+12  -1.7271318414012444e+12  -1.7271318414012458e+12  -1.7271318414012471e+12  -1.7271318414012466e+12  -1.7271318414012471e+12  -1.7271318414012463e+12  -1.7271318414012444e+12  -1.7271318414012810e+12  -1.7271318414012808e+12  -1.7271318414012458e+12  -1.7271318414012812e+12  -1.7271318414012791e+12  -1.7271318414012791e+12  -1.7271318414012771e+12  -1.7271318414012451e+12  -1.7271318414012808e+12  -1.7271318414012739e+12  -1.7271318414012434e+12  -1.7271318414012805e+12  -1.7271318414012412e+12  -1.7271318414012803e+12  -1.7271318414012722e+12  -1.7271318414012388e+12  -1.7271318414012795e+12  -1.7271318414012705e+12  -1.7271318414012698e+12  -1.7271318414012686e+12  -1.7271318414012681e+12  -1.7271318414012698e+12  -1.7271318414012703e+12  -1.7271318414012715e+12  -1.7271318414012732e+12  -1.7271318414012751e+12  -1.7271318414012341e+12  -1.7271318414012764e+12  -1.7271318414012363e+12  -1.7271318414012783e+12  -1.7271318414012395e+12  -1.7271318414012798e+12  -1.7271318414012422e+12  -1.7271318414012808e+12  -1.7271318414012449e+12  -1.7271318414012446e+12  -1.7271318414012417e+12  -1.7271318414012390e+12  -1.7271318414012422e+12  -1.7271318414012444e+12  -1.7271318414012449e+12  -1.7271318414012463e+12  -1.7271318414012451e+12  -1.7271318414012458e+12  -1.7271318414012463e+12  -1.7271318414012466e+12  -1.7271318414011748e+12  -1.7271318414011890e+12  -1.7271318414011794e+12  -1.7271318414011709e+12  -1.7271318414011189e+12  </DataArray> 
</PointData> 
</Piece>
</UnstructuredGrid>
</VTKFile>